107810
  -OEChem-04241304062D

 88 91  0     1  0  0  0  0  0999 V2000
    4.1923    1.1452    0.0000 O   0  0  0  0  0  0  0  0  0  0  0  0
    4.8602    0.4009    0.0000 O   0  0  0  0  0  0  0  0  0  0  0  0
    6.5530   -2.7825    0.0000 O   0  0  0  0  0  0  0  0  0  0  0  0
    8.8672   -4.0649    0.0000 O   0  0  0  0  0  0  0  0  0  0  0  0
    7.2209   -3.5268    0.0000 O   0  0  0  0  0  0  0  0  0  0  0  0
    3.8352    2.8400    0.0000 N   0  0  0  0  0  0  0  0  0  0  0  0
    5.4815    2.3019    0.0000 N   0  0  0  0  0  0  0  0  0  0  0  0
    6.5065   -0.1372    0.0000 N   0  0  0  0  0  0  0  0  0  0  0  0
    4.9067   -3.8539    0.0000 N   0  0  0  0  0  0  0  0  0  0  0  0
    7.8422   -1.6258    0.0000 N   0  0  0  0  0  0  0  0  0  0  0  0
   11.1349   -2.7020    0.0000 N   0  0  0  0  0  0  0  0  0  0  0  0
    2.7443    4.8044    0.0000 C   0  0  0  0  0  0  0  0  0  0  0  0
    2.0000    4.1366    0.0000 C   0  0  0  0  0  0  0  0  0  0  0  0
    3.7305    4.6389    0.0000 C   0  0  0  0  0  0  0  0  0  0  0  0
    2.0581    3.1383    0.0000 C   0  0  0  0  0  0  0  0  0  0  0  0
    4.2160    3.7647    0.0000 C   0  0  0  0  0  0  0  0  0  0  0  0
    2.8748    2.5612    0.0000 C   0  0  0  0  0  0  0  0  0  0  0  0
    6.1494    1.5576    0.0000 C   0  0  1  0  0  0  0  0  0  0  0  0
    7.1279    1.7638    0.0000 C   0  0  0  0  0  0  0  0  0  0  0  0
    7.4385    2.7144    0.0000 C   0  0  0  0  0  0  0  0  0  0  0  0
    4.5030    2.0957    0.0000 C   0  0  0  0  0  0  0  0  0  0  0  0
    6.1959   -1.0877    0.0000 C   0  0  2  0  0  0  0  0  0  0  0  0
    5.2174   -1.2939    0.0000 C   0  0  0  0  0  0  0  0  0  0  0  0
    5.8387    0.6071    0.0000 C   0  0  0  0  0  0  0  0  0  0  0  0
    4.9067   -2.2444    0.0000 C   0  0  0  0  0  0  0  0  0  0  0  0
    8.4170    2.9206    0.0000 C   0  0  0  0  0  0  0  0  0  0  0  0
    6.7707    3.4587    0.0000 C   0  0  0  0  0  0  0  0  0  0  0  0
    3.9605   -2.5492    0.0000 C   0  0  0  0  0  0  0  0  0  0  0  0
    6.8637   -1.8320    0.0000 C   0  0  0  0  0  0  0  0  0  0  0  0
    3.9605   -3.5492    0.0000 C   0  0  0  0  0  0  0  0  0  0  0  0
    5.4903   -3.0492    0.0000 C   0  0  0  0  0  0  0  0  0  0  0  0
    8.5101   -2.3701    0.0000 C   0  0  2  0  0  0  0  0  0  0  0  0
    3.0945   -2.0492    0.0000 C   0  0  0  0  0  0  0  0  0  0  0  0
    3.0945   -4.0492    0.0000 C   0  0  0  0  0  0  0  0  0  0  0  0
    5.2174   -4.8044    0.0000 C   0  0  0  0  0  0  0  0  0  0  0  0
    9.4886   -2.1639    0.0000 C   0  0  0  0  0  0  0  0  0  0  0  0
    2.2284   -2.5492    0.0000 C   0  0  0  0  0  0  0  0  0  0  0  0
    2.2284   -3.5492    0.0000 C   0  0  0  0  0  0  0  0  0  0  0  0
    8.1994   -3.3206    0.0000 C   0  0  0  0  0  0  0  0  0  0  0  0
   10.1564   -2.9082    0.0000 C   0  0  0  0  0  0  0  0  0  0  0  0
    9.8458   -3.8587    0.0000 C   0  0  0  0  0  0  0  0  0  0  0  0
   10.5136   -4.6030    0.0000 C   0  0  0  0  0  0  0  0  0  0  0  0
   11.8028   -3.4463    0.0000 C   0  0  0  0  0  0  0  0  0  0  0  0
   11.4921   -4.3968    0.0000 C   0  0  0  0  0  0  0  0  0  0  0  0
    2.9804    5.3777    0.0000 H   0  0  0  0  0  0  0  0  0  0  0  0
    2.2379    5.1622    0.0000 H   0  0  0  0  0  0  0  0  0  0  0  0
    1.6990    4.6786    0.0000 H   0  0  0  0  0  0  0  0  0  0  0  0
    1.4046    3.9638    0.0000 H   0  0  0  0  0  0  0  0  0  0  0  0
    1.4466    3.2409    0.0000 H   0  0  0  0  0  0  0  0  0  0  0  0
    1.8220    2.5650    0.0000 H   0  0  0  0  0  0  0  0  0  0  0  0
    4.3259    4.8118    0.0000 H   0  0  0  0  0  0  0  0  0  0  0  0
    3.6945    5.2579    0.0000 H   0  0  0  0  0  0  0  0  0  0  0  0
    2.4133    2.1472    0.0000 H   0  0  0  0  0  0  0  0  0  0  0  0
    3.1758    2.0192    0.0000 H   0  0  0  0  0  0  0  0  0  0  0  0
    4.7223    3.4069    0.0000 H   0  0  0  0  0  0  0  0  0  0  0  0
    4.6774    4.1787    0.0000 H   0  0  0  0  0  0  0  0  0  0  0  0
    6.3420    2.1470    0.0000 H   0  0  0  0  0  0  0  0  0  0  0  0
    7.1484    1.1442    0.0000 H   0  0  0  0  0  0  0  0  0  0  0  0
    7.7417    1.6765    0.0000 H   0  0  0  0  0  0  0  0  0  0  0  0
    6.8318    2.5865    0.0000 H   0  0  0  0  0  0  0  0  0  0  0  0
    5.7818   -0.6262    0.0000 H   0  0  0  0  0  0  0  0  0  0  0  0
    5.6741    2.8912    0.0000 H   0  0  0  0  0  0  0  0  0  0  0  0
    5.1968   -0.6743    0.0000 H   0  0  0  0  0  0  0  0  0  0  0  0
    4.6036   -1.2066    0.0000 H   0  0  0  0  0  0  0  0  0  0  0  0
    7.1132   -0.0093    0.0000 H   0  0  0  0  0  0  0  0  0  0  0  0
    7.2321    3.8727    0.0000 H   0  0  0  0  0  0  0  0  0  0  0  0
    6.3566    3.9201    0.0000 H   0  0  0  0  0  0  0  0  0  0  0  0
    6.3092    3.0446    0.0000 H   0  0  0  0  0  0  0  0  0  0  0  0
    8.5449    2.3139    0.0000 H   0  0  0  0  0  0  0  0  0  0  0  0
    9.0237    3.0484    0.0000 H   0  0  0  0  0  0  0  0  0  0  0  0
    8.2892    3.5273    0.0000 H   0  0  0  0  0  0  0  0  0  0  0  0
    6.1103   -3.0492    0.0000 H   0  0  0  0  0  0  0  0  0  0  0  0
    8.0348   -1.0365    0.0000 H   0  0  0  0  0  0  0  0  0  0  0  0
    8.7027   -1.7808    0.0000 H   0  0  0  0  0  0  0  0  0  0  0  0
    3.0945   -1.4292    0.0000 H   0  0  0  0  0  0  0  0  0  0  0  0
    3.0945   -4.6692    0.0000 H   0  0  0  0  0  0  0  0  0  0  0  0
    4.6280   -4.9970    0.0000 H   0  0  0  0  0  0  0  0  0  0  0  0
    5.4100   -5.3938    0.0000 H   0  0  0  0  0  0  0  0  0  0  0  0
    5.8067   -4.6118    0.0000 H   0  0  0  0  0  0  0  0  0  0  0  0
   10.0149   -1.8362    0.0000 H   0  0  0  0  0  0  0  0  0  0  0  0
    9.2573   -1.5886    0.0000 H   0  0  0  0  0  0  0  0  0  0  0  0
    1.6915   -2.2392    0.0000 H   0  0  0  0  0  0  0  0  0  0  0  0
    1.6915   -3.8592    0.0000 H   0  0  0  0  0  0  0  0  0  0  0  0
    9.2391   -3.9866    0.0000 H   0  0  0  0  0  0  0  0  0  0  0  0
    8.6746   -4.6542    0.0000 H   0  0  0  0  0  0  0  0  0  0  0  0
   10.3210   -5.1923    0.0000 H   0  0  0  0  0  0  0  0  0  0  0  0
   12.4094   -3.3184    0.0000 H   0  0  0  0  0  0  0  0  0  0  0  0
   11.9062   -4.8582    0.0000 H   0  0  0  0  0  0  0  0  0  0  0  0
  1 21  2  0  0  0  0
  2 24  2  0  0  0  0
  3 29  2  0  0  0  0
  4 39  1  0  0  0  0
  4 85  1  0  0  0  0
  5 39  2  0  0  0  0
  6 16  1  0  0  0  0
  6 17  1  0  0  0  0
  6 21  1  0  0  0  0
 18  7  1  1  0  0  0
  7 21  1  0  0  0  0
  7 62  1  0  0  0  0
 22  8  1  1  0  0  0
  8 24  1  0  0  0  0
  8 65  1  0  0  0  0
  9 30  1  0  0  0  0
  9 31  1  0  0  0  0
  9 35  1  0  0  0  0
 10 29  1  0  0  0  0
 32 10  1  6  0  0  0
 10 73  1  0  0  0  0
 11 40  1  0  0  0  0
 11 43  2  0  0  0  0
 12 13  1  0  0  0  0
 12 14  1  0  0  0  0
 12 45  1  0  0  0  0
 12 46  1  0  0  0  0
 13 15  1  0  0  0  0
 13 47  1  0  0  0  0
 13 48  1  0  0  0  0
 14 16  1  0  0  0  0
 14 51  1  0  0  0  0
 14 52  1  0  0  0  0
 15 17  1  0  0  0  0
 15 49  1  0  0  0  0
 15 50  1  0  0  0  0
 16 55  1  0  0  0  0
 16 56  1  0  0  0  0
 17 53  1  0  0  0  0
 17 54  1  0  0  0  0
 18 19  1  0  0  0  0
 18 24  1  0  0  0  0
 18 57  1  0  0  0  0
 19 20  1  0  0  0  0
 19 58  1  0  0  0  0
 19 59  1  0  0  0  0
 20 26  1  0  0  0  0
 20 27  1  0  0  0  0
 20 60  1  0  0  0  0
 22 23  1  0  0  0  0
 22 29  1  0  0  0  0
 22 61  1  0  0  0  0
 23 25  1  0  0  0  0
 23 63  1  0  0  0  0
 23 64  1  0  0  0  0
 25 28  1  0  0  0  0
 25 31  2  0  0  0  0
 26 69  1  0  0  0  0
 26 70  1  0  0  0  0
 26 71  1  0  0  0  0
 27 66  1  0  0  0  0
 27 67  1  0  0  0  0
 27 68  1  0  0  0  0
 28 30  1  0  0  0  0
 28 33  2  0  0  0  0
 30 34  2  0  0  0  0
 31 72  1  0  0  0  0
 32 36  1  0  0  0  0
 32 39  1  0  0  0  0
 32 74  1  0  0  0  0
 33 37  1  0  0  0  0
 33 75  1  0  0  0  0
 34 38  1  0  0  0  0
 34 76  1  0  0  0  0
 35 77  1  0  0  0  0
 35 78  1  0  0  0  0
 35 79  1  0  0  0  0
 36 40  1  0  0  0  0
 36 80  1  0  0  0  0
 36 81  1  0  0  0  0
 37 38  2  0  0  0  0
 37 82  1  0  0  0  0
 38 83  1  0  0  0  0
 40 41  2  0  0  0  0
 41 42  1  0  0  0  0
 41 84  1  0  0  0  0
 42 44  2  0  0  0  0
 42 86  1  0  0  0  0
 43 44  1  0  0  0  0
 43 87  1  0  0  0  0
 44 88  1  0  0  0  0
M  END
> <PUBCHEM_COMPOUND_CID>
107810

> <PUBCHEM_COMPOUND_CANONICALIZED>
1

> <PUBCHEM_CACTVS_COMPLEXITY>
970

> <PUBCHEM_CACTVS_HBOND_ACCEPTOR>
6

> <PUBCHEM_CACTVS_HBOND_DONOR>
4

> <PUBCHEM_CACTVS_ROTATABLE_BOND>
12

> <PUBCHEM_CACTVS_SUBSKEYS>
AAADcfB/uAAAAAAAAAAAAAAAAAAAAWAAAAA8QAAABYAAAFgB/AAAHgAQCAAADSjBngQ/yPPMEgCoAzX3XACCgCAxAiAI2KG4ZJiKYPLA0bGUYAhslgLYyAe8yeCOgAAAAAACAAAAAAAAAAQAAAAAAAAAAA==

> <PUBCHEM_IUPAC_OPENEYE_NAME>
(2R)-2-[[(2R)-2-[[(2S)-2-(azepane-1-carbonylamino)-4-methyl-pentanoyl]amino]-3-(1-methylindol-3-yl)propanoyl]amino]-3-(2-pyridyl)propanoic acid

> <PUBCHEM_IUPAC_CAS_NAME>
(2R)-2-[[(2R)-2-[[(2S)-2-[[1-azepanyl(oxo)methyl]amino]-4-methyl-1-oxopentyl]amino]-3-(1-methyl-3-indolyl)-1-oxopropyl]amino]-3-(2-pyridinyl)propanoic acid

> <PUBCHEM_IUPAC_NAME>
(2R)-2-[[(2R)-2-[[(2S)-2-(azepane-1-carbonylamino)-4-methylpentanoyl]amino]-3-(1-methylindol-3-yl)propanoyl]amino]-3-pyridin-2-ylpropanoic acid

> <PUBCHEM_IUPAC_SYSTEMATIC_NAME>
(2R)-2-[[(2R)-2-[[(2S)-2-(azepan-1-ylcarbonylamino)-4-methyl-pentanoyl]amino]-3-(1-methylindol-3-yl)propanoyl]amino]-3-pyridin-2-yl-propanoic acid

> <PUBCHEM_IUPAC_TRADITIONAL_NAME>
(2R)-2-[[(2R)-2-[[(2S)-2-(azepane-1-carbonylamino)-4-methyl-pentanoyl]amino]-3-(1-methylindol-3-yl)propanoyl]amino]-3-(2-pyridyl)propionic acid

> <PUBCHEM_IUPAC_INCHI>
InChI=1S/C33H44N6O5/c1-22(2)18-26(37-33(44)39-16-10-4-5-11-17-39)30(40)35-27(19-23-21-38(3)29-14-7-6-13-25(23)29)31(41)36-28(32(42)43)20-24-12-8-9-15-34-24/h6-9,12-15,21-22,26-28H,4-5,10-11,16-20H2,1-3H3,(H,35,40)(H,36,41)(H,37,44)(H,42,43)/t26-,27+,28+/m0/s1

> <PUBCHEM_IUPAC_INCHIKEY>
LIOKMIQQPDDTNO-UPRLRBBYSA-N

> <PUBCHEM_XLOGP3_AA>
3.8

> <PUBCHEM_EXACT_MASS>
604.337319

> <PUBCHEM_MOLECULAR_FORMULA>
C33H44N6O5

> <PUBCHEM_MOLECULAR_WEIGHT>
604.73966

> <PUBCHEM_OPENEYE_CAN_SMILES>
CC(C)CC(C(=O)NC(CC1=CN(C2=CC=CC=C21)C)C(=O)NC(CC3=CC=CC=N3)C(=O)O)NC(=O)N4CCCCCC4

> <PUBCHEM_OPENEYE_ISO_SMILES>
CC(C)C[C@@H](C(=O)N[C@H](CC1=CN(C2=CC=CC=C21)C)C(=O)N[C@H](CC3=CC=CC=N3)C(=O)O)NC(=O)N4CCCCCC4

> <PUBCHEM_CACTVS_TPSA>
146

> <PUBCHEM_MONOISOTOPIC_WEIGHT>
604.337319

> <PUBCHEM_TOTAL_CHARGE>
0

> <PUBCHEM_HEAVY_ATOM_COUNT>
44

> <PUBCHEM_ATOM_DEF_STEREO_COUNT>
3

> <PUBCHEM_ATOM_UDEF_STEREO_COUNT>
0

> <PUBCHEM_BOND_DEF_STEREO_COUNT>
0

> <PUBCHEM_BOND_UDEF_STEREO_COUNT>
0

> <PUBCHEM_ISOTOPIC_ATOM_COUNT>
0

> <PUBCHEM_COMPONENT_COUNT>
1

> <PUBCHEM_CACTVS_TAUTO_COUNT>
16

> <PUBCHEM_COORDINATE_TYPE>
1
5
255

> <PUBCHEM_BONDANNOTATIONS>
32  10  6
11  40  8
11  43  8
25  28  8
25  31  8
28  30  8
28  33  8
30  34  8
33  37  8
34  38  8
37  38  8
40  41  8
41  42  8
42  44  8
43  44  8
18  7  5
22  8  5
9  30  8
9  31  8

$$$$
