3047752
  -OEChem-04241303552D

 72 76  0     1  0  0  0  0  0999 V2000
   10.2260   -1.2694    0.0000 O   0  0  0  0  0  0  0  0  0  0  0  0
   10.2260    0.4627    0.0000 O   0  0  0  0  0  0  0  0  0  0  0  0
   10.6500   -3.7205    0.0000 O   0  0  0  0  0  0  0  0  0  0  0  0
    9.5751   -4.9184    0.0000 O   0  0  0  0  0  0  0  0  0  0  0  0
    9.3850    4.2034    0.0000 O   0  0  0  0  0  0  0  0  0  0  0  0
    5.7817    4.3291    0.0000 O   0  0  0  0  0  0  0  0  0  0  0  0
    7.4280    3.7910    0.0000 O   0  0  0  0  0  0  0  0  0  0  0  0
    6.3301    0.5966    0.0000 N   0  0  0  0  0  0  0  0  0  0  0  0
    8.7260   -0.4034    0.0000 C   0  0  1  0  0  0  0  0  0  0  0  0
    8.1424    0.4014    0.0000 C   0  0  1  0  0  0  0  0  0  0  0  0
    8.1424   -1.2081    0.0000 C   0  0  2  0  0  0  0  0  0  0  0  0
    7.1962   -0.9034    0.0000 C   0  0  0  0  0  0  0  0  0  0  0  0
    7.1962    0.0966    0.0000 C   0  0  0  0  0  0  0  0  0  0  0  0
    8.4530    1.3519    0.0000 C   0  0  0  0  0  0  0  0  0  0  0  0
    8.4530   -2.1586    0.0000 C   0  0  0  0  0  0  0  0  0  0  0  0
    9.7260   -0.4034    0.0000 C   0  0  0  0  0  0  0  0  0  0  0  0
    6.3301   -1.4034    0.0000 C   0  0  0  0  0  0  0  0  0  0  0  0
    7.7852    2.0962    0.0000 C   0  0  0  0  0  0  0  0  0  0  0  0
    5.4641    0.0966    0.0000 C   0  0  0  0  0  0  0  0  0  0  0  0
    9.4315    1.5581    0.0000 C   0  0  0  0  0  0  0  0  0  0  0  0
    9.4315   -2.3648    0.0000 C   0  0  0  0  0  0  0  0  0  0  0  0
    5.4641   -0.9034    0.0000 C   0  0  0  0  0  0  0  0  0  0  0  0
    7.7852   -2.9029    0.0000 C   0  0  0  0  0  0  0  0  0  0  0  0
    6.8067    1.8900    0.0000 C   0  0  0  0  0  0  0  0  0  0  0  0
    8.0958    3.0467    0.0000 C   0  0  0  0  0  0  0  0  0  0  0  0
    4.5981    0.5966    0.0000 C   0  0  0  0  0  0  0  0  0  0  0  0
    6.1388    2.6343    0.0000 C   0  0  3  0  0  0  0  0  0  0  0  0
    9.7422   -3.3154    0.0000 C   0  0  0  0  0  0  0  0  0  0  0  0
    9.7422    2.5086    0.0000 C   0  0  0  0  0  0  0  0  0  0  0  0
    8.0958   -3.8534    0.0000 C   0  0  0  0  0  0  0  0  0  0  0  0
    9.0744    3.2529    0.0000 C   0  0  0  0  0  0  0  0  0  0  0  0
    9.0744   -4.0597    0.0000 C   0  0  0  0  0  0  0  0  0  0  0  0
    3.7320    0.0966    0.0000 C   0  0  0  0  0  0  0  0  0  0  0  0
    5.1603    2.4280    0.0000 C   0  0  0  0  0  0  0  0  0  0  0  0
    2.8660    0.5966    0.0000 C   0  0  0  0  0  0  0  0  0  0  0  0
    6.4495    3.5848    0.0000 C   0  0  0  0  0  0  0  0  0  0  0  0
   10.5469   -4.7092    0.0000 C   0  0  0  0  0  0  0  0  0  0  0  0
    2.0000    0.0966    0.0000 C   0  0  0  0  0  0  0  0  0  0  0  0
   10.3635    4.4097    0.0000 C   0  0  0  0  0  0  0  0  0  0  0  0
    9.0077   -0.9557    0.0000 H   0  0  0  0  0  0  0  0  0  0  0  0
    8.9821    0.5332    0.0000 H   0  0  0  0  0  0  0  0  0  0  0  0
    8.7549   -1.3043    0.0000 H   0  0  0  0  0  0  0  0  0  0  0  0
    6.3301   -2.0234    0.0000 H   0  0  0  0  0  0  0  0  0  0  0  0
    9.8456    1.0966    0.0000 H   0  0  0  0  0  0  0  0  0  0  0  0
    9.8456   -1.9034    0.0000 H   0  0  0  0  0  0  0  0  0  0  0  0
    4.9272   -1.2134    0.0000 H   0  0  0  0  0  0  0  0  0  0  0  0
    7.1785   -2.7751    0.0000 H   0  0  0  0  0  0  0  0  0  0  0  0
    6.2803    1.5623    0.0000 H   0  0  0  0  0  0  0  0  0  0  0  0
    7.0380    1.3147    0.0000 H   0  0  0  0  0  0  0  0  0  0  0  0
    7.6818    3.5082    0.0000 H   0  0  0  0  0  0  0  0  0  0  0  0
    4.9966    1.0716    0.0000 H   0  0  0  0  0  0  0  0  0  0  0  0
    4.1996    1.0716    0.0000 H   0  0  0  0  0  0  0  0  0  0  0  0
    5.7248    3.0957    0.0000 H   0  0  0  0  0  0  0  0  0  0  0  0
   10.3489    2.6365    0.0000 H   0  0  0  0  0  0  0  0  0  0  0  0
    7.6818   -4.3149    0.0000 H   0  0  0  0  0  0  0  0  0  0  0  0
   10.8460   -1.2694    0.0000 H   0  0  0  0  0  0  0  0  0  0  0  0
    3.3335   -0.3783    0.0000 H   0  0  0  0  0  0  0  0  0  0  0  0
    4.1306   -0.3783    0.0000 H   0  0  0  0  0  0  0  0  0  0  0  0
    5.0325    3.0347    0.0000 H   0  0  0  0  0  0  0  0  0  0  0  0
    4.5537    2.3002    0.0000 H   0  0  0  0  0  0  0  0  0  0  0  0
    5.2882    1.8214    0.0000 H   0  0  0  0  0  0  0  0  0  0  0  0
    3.2646    1.0716    0.0000 H   0  0  0  0  0  0  0  0  0  0  0  0
    2.4675    1.0716    0.0000 H   0  0  0  0  0  0  0  0  0  0  0  0
   10.6130   -5.3257    0.0000 H   0  0  0  0  0  0  0  0  0  0  0  0
   11.1669   -4.7083    0.0000 H   0  0  0  0  0  0  0  0  0  0  0  0
    1.6900    0.6336    0.0000 H   0  0  0  0  0  0  0  0  0  0  0  0
    1.4631   -0.2134    0.0000 H   0  0  0  0  0  0  0  0  0  0  0  0
    2.3100   -0.4403    0.0000 H   0  0  0  0  0  0  0  0  0  0  0  0
   10.4914    3.8030    0.0000 H   0  0  0  0  0  0  0  0  0  0  0  0
   10.9702    4.5375    0.0000 H   0  0  0  0  0  0  0  0  0  0  0  0
   10.2357    5.0163    0.0000 H   0  0  0  0  0  0  0  0  0  0  0  0
    5.9743    4.9184    0.0000 H   0  0  0  0  0  0  0  0  0  0  0  0
  1 16  1  0  0  0  0
  1 56  1  0  0  0  0
  2 16  2  0  0  0  0
  3 28  1  0  0  0  0
  3 37  1  0  0  0  0
  4 32  1  0  0  0  0
  4 37  1  0  0  0  0
  5 31  1  0  0  0  0
  5 39  1  0  0  0  0
  6 36  1  0  0  0  0
  6 72  1  0  0  0  0
  7 36  2  0  0  0  0
  8 13  1  0  0  0  0
  8 19  2  0  0  0  0
  9 10  1  0  0  0  0
  9 11  1  0  0  0  0
  9 16  1  6  0  0  0
  9 40  1  0  0  0  0
 10 13  1  0  0  0  0
 10 14  1  0  0  0  0
 10 41  1  6  0  0  0
 11 12  1  0  0  0  0
 11 15  1  1  0  0  0
 11 42  1  0  0  0  0
 12 13  2  0  0  0  0
 12 17  1  0  0  0  0
 14 18  2  0  0  0  0
 14 20  1  0  0  0  0
 15 21  2  0  0  0  0
 15 23  1  0  0  0  0
 17 22  2  0  0  0  0
 17 43  1  0  0  0  0
 18 24  1  0  0  0  0
 18 25  1  0  0  0  0
 19 22  1  0  0  0  0
 19 26  1  0  0  0  0
 20 29  2  0  0  0  0
 20 44  1  0  0  0  0
 21 28  1  0  0  0  0
 21 45  1  0  0  0  0
 22 46  1  0  0  0  0
 23 30  2  0  0  0  0
 23 47  1  0  0  0  0
 24 27  1  0  0  0  0
 24 48  1  0  0  0  0
 24 49  1  0  0  0  0
 25 31  2  0  0  0  0
 25 50  1  0  0  0  0
 26 33  1  0  0  0  0
 26 51  1  0  0  0  0
 26 52  1  0  0  0  0
 27 34  1  0  0  0  0
 27 36  1  0  0  0  0
 27 53  1  0  0  0  0
 28 32  2  0  0  0  0
 29 31  1  0  0  0  0
 29 54  1  0  0  0  0
 30 32  1  0  0  0  0
 30 55  1  0  0  0  0
 33 35  1  0  0  0  0
 33 57  1  0  0  0  0
 33 58  1  0  0  0  0
 34 59  1  0  0  0  0
 34 60  1  0  0  0  0
 34 61  1  0  0  0  0
 35 38  1  0  0  0  0
 35 62  1  0  0  0  0
 35 63  1  0  0  0  0
 37 64  1  0  0  0  0
 37 65  1  0  0  0  0
 38 66  1  0  0  0  0
 38 67  1  0  0  0  0
 38 68  1  0  0  0  0
 39 69  1  0  0  0  0
 39 70  1  0  0  0  0
 39 71  1  0  0  0  0
M  END
> <PUBCHEM_COMPOUND_CID>
3047752

> <PUBCHEM_COMPOUND_CANONICALIZED>
1

> <PUBCHEM_CACTVS_COMPLEXITY>
853

> <PUBCHEM_CACTVS_HBOND_ACCEPTOR>
8

> <PUBCHEM_CACTVS_HBOND_DONOR>
2

> <PUBCHEM_CACTVS_ROTATABLE_BOND>
10

> <PUBCHEM_CACTVS_SUBSKEYS>
AAADcfB6OAAAAAAAAAAAAAAAAAAAAaIAAAA8YIAAAAAAAFgB0AAAHgAACAAADQyBngMyjpIIFgCoAyTyTACCiCAhIiAImCE27JgdJvLEsZukcCpkwBHO6Ae82fOeoAABAAAQQABAAAIAACCAASAACQAAAA==

> <PUBCHEM_IUPAC_OPENEYE_NAME>
(5S,6R,7R)-5-(1,3-benzodioxol-5-yl)-2-butyl-7-[2-(2-carboxypropyl)-4-methoxy-phenyl]-6,7-dihydro-5H-cyclopenta[b]pyridine-6-carboxylic acid

> <PUBCHEM_IUPAC_CAS_NAME>
(5S,6R,7R)-5-(1,3-benzodioxol-5-yl)-2-butyl-7-[2-(2-carboxypropyl)-4-methoxyphenyl]-6,7-dihydro-5H-cyclopenta[b]pyridine-6-carboxylic acid

> <PUBCHEM_IUPAC_NAME>
(5S,6R,7R)-5-(1,3-benzodioxol-5-yl)-2-butyl-7-[2-(2-carboxypropyl)-4-methoxyphenyl]-6,7-dihydro-5H-cyclopenta[b]pyridine-6-carboxylic acid

> <PUBCHEM_IUPAC_SYSTEMATIC_NAME>
(5S,6R,7R)-5-(1,3-benzodioxol-5-yl)-2-butyl-7-[4-methoxy-2-(2-methyl-3-oxidanyl-3-oxidanylidene-propyl)phenyl]-6,7-dihydro-5H-cyclopenta[b]pyridine-6-carboxylic acid

> <PUBCHEM_IUPAC_TRADITIONAL_NAME>
(5S,6R,7R)-5-(1,3-benzodioxol-5-yl)-2-butyl-7-[2-(2-carboxypropyl)-4-methoxy-phenyl]-1-pyrindan-6-carboxylic acid

> <PUBCHEM_IUPAC_INCHI>
InChI=1S/C31H33NO7/c1-4-5-6-20-8-10-23-26(18-7-12-24-25(15-18)39-16-38-24)28(31(35)36)27(29(23)32-20)22-11-9-21(37-3)14-19(22)13-17(2)30(33)34/h7-12,14-15,17,26-28H,4-6,13,16H2,1-3H3,(H,33,34)(H,35,36)/t17?,26-,27-,28+/m0/s1

> <PUBCHEM_IUPAC_INCHIKEY>
IUHMIOAKWHUFKU-DULCMVPVSA-N

> <PUBCHEM_XLOGP3_AA>
5.5

> <PUBCHEM_EXACT_MASS>
531.225702

> <PUBCHEM_MOLECULAR_FORMULA>
C31H33NO7

> <PUBCHEM_MOLECULAR_WEIGHT>
531.59622

> <PUBCHEM_OPENEYE_CAN_SMILES>
CCCCC1=NC2=C(C=C1)C(C(C2C3=C(C=C(C=C3)OC)CC(C)C(=O)O)C(=O)O)C4=CC5=C(C=C4)OCO5

> <PUBCHEM_OPENEYE_ISO_SMILES>
CCCCC1=NC2=C(C=C1)[C@@H]([C@H]([C@@H]2C3=C(C=C(C=C3)OC)CC(C)C(=O)O)C(=O)O)C4=CC5=C(C=C4)OCO5

> <PUBCHEM_CACTVS_TPSA>
115

> <PUBCHEM_MONOISOTOPIC_WEIGHT>
531.225702

> <PUBCHEM_TOTAL_CHARGE>
0

> <PUBCHEM_HEAVY_ATOM_COUNT>
39

> <PUBCHEM_ATOM_DEF_STEREO_COUNT>
3

> <PUBCHEM_ATOM_UDEF_STEREO_COUNT>
1

> <PUBCHEM_BOND_DEF_STEREO_COUNT>
0

> <PUBCHEM_BOND_UDEF_STEREO_COUNT>
0

> <PUBCHEM_ISOTOPIC_ATOM_COUNT>
0

> <PUBCHEM_COMPONENT_COUNT>
1

> <PUBCHEM_CACTVS_TAUTO_COUNT>
2

> <PUBCHEM_COORDINATE_TYPE>
1
5
255

> <PUBCHEM_BONDANNOTATIONS>
10  41  6
11  15  5
12  13  8
12  17  8
14  18  8
14  20  8
15  21  8
15  23  8
17  22  8
18  25  8
19  22  8
20  29  8
21  28  8
23  30  8
25  31  8
27  34  3
28  32  8
29  31  8
30  32  8
8  13  8
8  19  8
9  16  6

$$$$
