123882
  -OEChem-04231305082D

119122  0     1  0  0  0  0  0999 V2000
   10.2781   -1.2313    0.0000 S   0  0  0  0  0  0  0  0  0  0  0  0
    5.7308    2.5000    0.0000 Na  0  3  0  0  0  0  0  0  0  0  0  0
   15.2571   -2.0000    0.0000 Na  0  3  0  0  0  0  0  0  0  0  0  0
   11.7930    1.0000    0.0000 O   0  0  0  0  0  0  0  0  0  0  0  0
    6.5968   -5.0000    0.0000 O   0  0  0  0  0  0  0  0  0  0  0  0
   11.7930    0.0000    0.0000 O   0  0  0  0  0  0  0  0  0  0  0  0
    5.7308   -1.5000    0.0000 O   0  0  0  0  0  0  0  0  0  0  0  0
    8.3289    1.0000    0.0000 O   0  0  0  0  0  0  0  0  0  0  0  0
    8.6949   -2.6340    0.0000 O   0  0  0  0  0  0  0  0  0  0  0  0
   12.6590   -3.5000    0.0000 O   0  0  0  0  0  0  0  0  0  0  0  0
    5.7308    1.5000    0.0000 O   0  5  0  0  0  0  0  0  0  0  0  0
    7.4629    1.5000    0.0000 O   0  0  0  0  0  0  0  0  0  0  0  0
   14.3911   -1.5000    0.0000 O   0  5  0  0  0  0  0  0  0  0  0  0
   13.5251   -3.0000    0.0000 O   0  0  0  0  0  0  0  0  0  0  0  0
   10.9270    2.5000    0.0000 N   0  0  0  0  0  0  0  0  0  0  0  0
   10.9270    4.5000    0.0000 N   0  0  0  0  0  0  0  0  0  0  0  0
    9.1949   -0.5000    0.0000 N   0  0  0  0  0  0  0  0  0  0  0  0
    7.4629   -3.5000    0.0000 N   0  0  0  0  0  0  0  0  0  0  0  0
    9.1949   -4.5000    0.0000 N   0  0  0  0  0  0  0  0  0  0  0  0
    7.4629   -1.5000    0.0000 N   0  0  0  0  0  0  0  0  0  0  0  0
   10.9270   -1.5000    0.0000 N   0  0  0  0  0  0  0  0  0  0  0  0
   10.9270   -3.5000    0.0000 N   0  0  0  0  0  0  0  0  0  0  0  0
    3.7899   -1.8021    0.0000 N   0  0  0  0  0  0  0  0  0  0  0  0
   11.7930    3.0000    0.0000 C   0  0  0  0  0  0  0  0  0  0  0  0
   10.0610    3.0000    0.0000 C   0  0  0  0  0  0  0  0  0  0  0  0
   11.7930    4.0000    0.0000 C   0  0  0  0  0  0  0  0  0  0  0  0
   10.0610    4.0000    0.0000 C   0  0  0  0  0  0  0  0  0  0  0  0
   10.9270    1.5000    0.0000 C   0  0  0  0  0  0  0  0  0  0  0  0
   10.0610    1.0000    0.0000 C   0  0  0  0  0  0  0  0  0  0  0  0
   10.0610    0.0000    0.0000 C   0  0  1  0  0  0  0  0  0  0  0  0
    8.3289   -5.0000    0.0000 C   0  0  1  0  0  0  0  0  0  0  0  0
    8.3289   -6.0000    0.0000 C   0  0  0  0  0  0  0  0  0  0  0  0
    6.5968   -3.0000    0.0000 C   0  0  2  0  0  0  0  0  0  0  0  0
   10.9270    5.5000    0.0000 C   0  0  0  0  0  0  0  0  0  0  0  0
    7.4629   -6.5000    0.0000 C   0  0  0  0  0  0  0  0  0  0  0  0
    5.7308   -3.5000    0.0000 C   0  0  0  0  0  0  0  0  0  0  0  0
    7.4629   -4.5000    0.0000 C   0  0  0  0  0  0  0  0  0  0  0  0
    7.4629   -0.5000    0.0000 C   0  0  1  0  0  0  0  0  0  0  0  0
   10.9270   -0.5000    0.0000 C   0  0  0  0  0  0  0  0  0  0  0  0
    4.8648   -3.0000    0.0000 C   0  0  0  0  0  0  0  0  0  0  0  0
    6.5968   -2.0000    0.0000 C   0  0  0  0  0  0  0  0  0  0  0  0
    8.3289    0.0000    0.0000 C   0  0  0  0  0  0  0  0  0  0  0  0
   11.7930   -2.0000    0.0000 C   0  0  2  0  0  0  0  0  0  0  0  0
    7.4629   -7.5000    0.0000 C   0  0  0  0  0  0  0  0  0  0  0  0
    6.5968   -6.0000    0.0000 C   0  0  0  0  0  0  0  0  0  0  0  0
   10.0610   -3.0000    0.0000 C   0  0  1  0  0  0  0  0  0  0  0  0
   11.7930    6.0000    0.0000 C   0  0  0  0  0  0  0  0  0  0  0  0
   10.0610    6.0000    0.0000 C   0  0  0  0  0  0  0  0  0  0  0  0
    3.9570   -3.4051    0.0000 C   0  0  0  0  0  0  0  0  0  0  0  0
    9.1949   -3.5000    0.0000 C   0  0  0  0  0  0  0  0  0  0  0  0
    6.5968    0.0000    0.0000 C   0  0  0  0  0  0  0  0  0  0  0  0
    4.7617   -2.0113    0.0000 C   0  0  0  0  0  0  0  0  0  0  0  0
    3.2892   -2.6608    0.0000 C   0  0  0  0  0  0  0  0  0  0  0  0
   11.7930   -3.0000    0.0000 C   0  0  0  0  0  0  0  0  0  0  0  0
   12.6590   -1.5000    0.0000 C   0  0  0  0  0  0  0  0  0  0  0  0
   11.7930    7.0000    0.0000 C   0  0  0  0  0  0  0  0  0  0  0  0
   10.0610    7.0000    0.0000 C   0  0  0  0  0  0  0  0  0  0  0  0
    9.7189   -2.0603    0.0000 C   0  0  0  0  0  0  0  0  0  0  0  0
    3.6464   -4.3556    0.0000 C   0  0  0  0  0  0  0  0  0  0  0  0
   10.9270    7.5000    0.0000 C   0  0  0  0  0  0  0  0  0  0  0  0
    2.3107   -2.8670    0.0000 C   0  0  0  0  0  0  0  0  0  0  0  0
    6.5968    1.0000    0.0000 C   0  0  0  0  0  0  0  0  0  0  0  0
    2.6678   -4.5618    0.0000 C   0  0  0  0  0  0  0  0  0  0  0  0
    8.7577   -1.7847    0.0000 C   0  0  0  0  0  0  0  0  0  0  0  0
    2.0000   -3.8176    0.0000 C   0  0  0  0  0  0  0  0  0  0  0  0
   13.5251   -2.0000    0.0000 C   0  0  0  0  0  0  0  0  0  0  0  0
    8.7228   -0.7853    0.0000 C   0  0  0  0  0  0  0  0  0  0  0  0
    9.6625   -0.4433    0.0000 C   0  0  0  0  0  0  0  0  0  0  0  0
   12.0051    2.4174    0.0000 H   0  0  0  0  0  0  0  0  0  0  0  0
   12.4036    3.1077    0.0000 H   0  0  0  0  0  0  0  0  0  0  0  0
    9.4504    3.1077    0.0000 H   0  0  0  0  0  0  0  0  0  0  0  0
    9.8489    2.4174    0.0000 H   0  0  0  0  0  0  0  0  0  0  0  0
    9.8489    4.5826    0.0000 H   0  0  0  0  0  0  0  0  0  0  0  0
    9.4504    3.8923    0.0000 H   0  0  0  0  0  0  0  0  0  0  0  0
   12.4036    3.8923    0.0000 H   0  0  0  0  0  0  0  0  0  0  0  0
   12.0051    4.5826    0.0000 H   0  0  0  0  0  0  0  0  0  0  0  0
    9.8489    1.5826    0.0000 H   0  0  0  0  0  0  0  0  0  0  0  0
    9.4504    0.8923    0.0000 H   0  0  0  0  0  0  0  0  0  0  0  0
    9.5240    0.3100    0.0000 H   0  0  0  0  0  0  0  0  0  0  0  0
    8.8658   -5.3100    0.0000 H   0  0  0  0  0  0  0  0  0  0  0  0
    8.5410   -6.5826    0.0000 H   0  0  0  0  0  0  0  0  0  0  0  0
    8.9395   -5.8923    0.0000 H   0  0  0  0  0  0  0  0  0  0  0  0
    6.5968   -3.6200    0.0000 H   0  0  0  0  0  0  0  0  0  0  0  0
    7.4629   -5.8800    0.0000 H   0  0  0  0  0  0  0  0  0  0  0  0
    5.3323   -3.9750    0.0000 H   0  0  0  0  0  0  0  0  0  0  0  0
    6.1293   -3.9750    0.0000 H   0  0  0  0  0  0  0  0  0  0  0  0
    6.9259   -0.8100    0.0000 H   0  0  0  0  0  0  0  0  0  0  0  0
    7.9998   -3.1900    0.0000 H   0  0  0  0  0  0  0  0  0  0  0  0
    9.4071   -1.0826    0.0000 H   0  0  0  0  0  0  0  0  0  0  0  0
    9.7319   -4.8100    0.0000 H   0  0  0  0  0  0  0  0  0  0  0  0
   11.7930   -1.3800    0.0000 H   0  0  0  0  0  0  0  0  0  0  0  0
    7.9998   -1.8100    0.0000 H   0  0  0  0  0  0  0  0  0  0  0  0
    6.9068   -5.4631    0.0000 H   0  0  0  0  0  0  0  0  0  0  0  0
    6.0599   -5.6900    0.0000 H   0  0  0  0  0  0  0  0  0  0  0  0
    6.8429   -7.5000    0.0000 H   0  0  0  0  0  0  0  0  0  0  0  0
    7.4629   -8.1200    0.0000 H   0  0  0  0  0  0  0  0  0  0  0  0
    8.0829   -7.5000    0.0000 H   0  0  0  0  0  0  0  0  0  0  0  0
    6.2868   -6.5369    0.0000 H   0  0  0  0  0  0  0  0  0  0  0  0
   10.7121   -2.4536    0.0000 H   0  0  0  0  0  0  0  0  0  0  0  0
   10.6169   -2.0369    0.0000 H   0  0  0  0  0  0  0  0  0  0  0  0
   12.3299    5.6900    0.0000 H   0  0  0  0  0  0  0  0  0  0  0  0
    9.5240    5.6900    0.0000 H   0  0  0  0  0  0  0  0  0  0  0  0
    5.9863    0.1077    0.0000 H   0  0  0  0  0  0  0  0  0  0  0  0
    6.3848   -0.5826    0.0000 H   0  0  0  0  0  0  0  0  0  0  0  0
    5.2232   -1.5972    0.0000 H   0  0  0  0  0  0  0  0  0  0  0  0
   10.9270   -4.1200    0.0000 H   0  0  0  0  0  0  0  0  0  0  0  0
   13.0576   -1.0250    0.0000 H   0  0  0  0  0  0  0  0  0  0  0  0
   12.2605   -1.0250    0.0000 H   0  0  0  0  0  0  0  0  0  0  0  0
    3.5397   -1.2348    0.0000 H   0  0  0  0  0  0  0  0  0  0  0  0
   12.3299    7.3100    0.0000 H   0  0  0  0  0  0  0  0  0  0  0  0
    9.5240    7.3100    0.0000 H   0  0  0  0  0  0  0  0  0  0  0  0
    4.0604   -4.8171    0.0000 H   0  0  0  0  0  0  0  0  0  0  0  0
   10.9270    8.1200    0.0000 H   0  0  0  0  0  0  0  0  0  0  0  0
    1.8966   -2.4056    0.0000 H   0  0  0  0  0  0  0  0  0  0  0  0
    2.4752   -5.1512    0.0000 H   0  0  0  0  0  0  0  0  0  0  0  0
    8.2691   -2.1664    0.0000 H   0  0  0  0  0  0  0  0  0  0  0  0
    1.3933   -3.9454    0.0000 H   0  0  0  0  0  0  0  0  0  0  0  0
    8.2088   -0.4386    0.0000 H   0  0  0  0  0  0  0  0  0  0  0  0
    9.8334    0.1527    0.0000 H   0  0  0  0  0  0  0  0  0  0  0  0
  1 58  1  0  0  0  0
  1 68  1  0  0  0  0
  4 28  2  0  0  0  0
  5 37  2  0  0  0  0
  6 39  2  0  0  0  0
  7 41  2  0  0  0  0
  8 42  2  0  0  0  0
  9 50  2  0  0  0  0
 10 54  2  0  0  0  0
 11 62  1  0  0  0  0
 12 62  2  0  0  0  0
 13 66  1  0  0  0  0
 14 66  2  0  0  0  0
 15 24  1  0  0  0  0
 15 25  1  0  0  0  0
 15 28  1  0  0  0  0
 16 26  1  0  0  0  0
 16 27  1  0  0  0  0
 16 34  1  0  0  0  0
 17 30  1  0  0  0  0
 17 42  1  0  0  0  0
 17 89  1  0  0  0  0
 18 33  1  0  0  0  0
 18 37  1  0  0  0  0
 18 88  1  0  0  0  0
 19 31  1  0  0  0  0
 19 50  1  0  0  0  0
 19 90  1  0  0  0  0
 20 38  1  0  0  0  0
 20 41  1  0  0  0  0
 20 92  1  0  0  0  0
 21 39  1  0  0  0  0
 21 43  1  0  0  0  0
 21100  1  0  0  0  0
 22 46  1  0  0  0  0
 22 54  1  0  0  0  0
 22106  1  0  0  0  0
 23 52  1  0  0  0  0
 23 53  1  0  0  0  0
 23109  1  0  0  0  0
 24 26  1  0  0  0  0
 24 69  1  0  0  0  0
 24 70  1  0  0  0  0
 25 27  1  0  0  0  0
 25 71  1  0  0  0  0
 25 72  1  0  0  0  0
 26 75  1  0  0  0  0
 26 76  1  0  0  0  0
 27 73  1  0  0  0  0
 27 74  1  0  0  0  0
 28 29  1  0  0  0  0
 30 29  1  1  0  0  0
 29 77  1  0  0  0  0
 29 78  1  0  0  0  0
 30 39  1  0  0  0  0
 30 79  1  0  0  0  0
 31 32  1  1  0  0  0
 31 37  1  0  0  0  0
 31 80  1  0  0  0  0
 32 35  1  0  0  0  0
 32 81  1  0  0  0  0
 32 82  1  0  0  0  0
 33 36  1  6  0  0  0
 33 41  1  0  0  0  0
 33 83  1  0  0  0  0
 34 47  2  0  0  0  0
 34 48  1  0  0  0  0
 35 44  1  0  0  0  0
 35 45  1  0  0  0  0
 35 84  1  0  0  0  0
 36 40  1  0  0  0  0
 36 85  1  0  0  0  0
 36 86  1  0  0  0  0
 38 42  1  0  0  0  0
 38 51  1  6  0  0  0
 38 87  1  0  0  0  0
 40 49  1  0  0  0  0
 40 52  2  0  0  0  0
 43 54  1  0  0  0  0
 43 55  1  1  0  0  0
 43 91  1  0  0  0  0
 44 95  1  0  0  0  0
 44 96  1  0  0  0  0
 44 97  1  0  0  0  0
 45 93  1  0  0  0  0
 45 94  1  0  0  0  0
 45 98  1  0  0  0  0
 46 50  1  0  0  0  0
 46 58  1  0  0  0  0
 46 99  1  6  0  0  0
 47 56  1  0  0  0  0
 47101  1  0  0  0  0
 48 57  2  0  0  0  0
 48102  1  0  0  0  0
 49 53  1  0  0  0  0
 49 59  2  0  0  0  0
 51 62  1  0  0  0  0
 51103  1  0  0  0  0
 51104  1  0  0  0  0
 52105  1  0  0  0  0
 53 61  2  0  0  0  0
 55 66  1  0  0  0  0
 55107  1  0  0  0  0
 55108  1  0  0  0  0
 56 60  2  0  0  0  0
 56110  1  0  0  0  0
 57 60  1  0  0  0  0
 57111  1  0  0  0  0
 58 64  2  0  0  0  0
 59 63  1  0  0  0  0
 59112  1  0  0  0  0
 60113  1  0  0  0  0
 61 65  1  0  0  0  0
 61114  1  0  0  0  0
 63 65  2  0  0  0  0
 63115  1  0  0  0  0
 64 67  1  0  0  0  0
 64116  1  0  0  0  0
 65117  1  0  0  0  0
 67 68  2  0  0  0  0
 67118  1  0  0  0  0
 68119  1  0  0  0  0
M  CHG  4   2   1   3   1  11  -1  13  -1
M  END
> <PUBCHEM_COMPOUND_CID>
123882

> <PUBCHEM_COMPOUND_CANONICALIZED>
1

> <PUBCHEM_CACTVS_COMPLEXITY>
1780

> <PUBCHEM_CACTVS_HBOND_ACCEPTOR>
13

> <PUBCHEM_CACTVS_HBOND_DONOR>
7

> <PUBCHEM_CACTVS_ROTATABLE_BOND>
10

> <PUBCHEM_CACTVS_SUBSKEYS>
AAADcfB//DBAAAAAAAAAAAAAAAAAAWJAAAA8YIAAAAAAAFgB/AAAHgQQAAAADSjF3gS+yfPJkAisAzX3XACDgKAxCjBI2bm4ZJgIYPrg1bGUIAhmlgDoyAc/icCOgAAAAAACAAAAAAAAAAQAAAAAAAAAAA==

> <PUBCHEM_IUPAC_OPENEYE_NAME>
disodium;2-[(2R,5S,8S,11S,14S,17R)-8-(carboxylatomethyl)-17-(1H-indol-3-ylmethyl)-14-isobutyl-3,6,9,12,15,18-hexaoxo-5-[2-oxo-2-(4-phenylpiperazin-1-yl)ethyl]-11-(2-thienyl)-1,4,7,10,13,16-hexazacyclooctadec-2-yl]acetate

> <PUBCHEM_IUPAC_CAS_NAME>
disodium;2-[(2R,5S,8S,11S,14S,17R)-8-(carboxylatomethyl)-17-(1H-indol-3-ylmethyl)-14-(2-methylpropyl)-3,6,9,12,15,18-hexaoxo-5-[2-oxo-2-(4-phenyl-1-piperazinyl)ethyl]-11-thiophen-2-yl-1,4,7,10,13,16-hexazacyclooctadec-2-yl]acetate

> <PUBCHEM_IUPAC_NAME>
disodium;2-[(2R,5S,8S,11S,14S,17R)-8-(carboxylatomethyl)-17-(1H-indol-3-ylmethyl)-14-(2-methylpropyl)-3,6,9,12,15,18-hexaoxo-5-[2-oxo-2-(4-phenylpiperazin-1-yl)ethyl]-11-thiophen-2-yl-1,4,7,10,13,16-hexazacyclooctadec-2-yl]acetate

> <PUBCHEM_IUPAC_SYSTEMATIC_NAME>
disodium;2-[(2R,5S,8S,11S,14S,17R)-17-(1H-indol-3-ylmethyl)-14-(2-methylpropyl)-8-(2-oxidanidyl-2-oxidanylidene-ethyl)-3,6,9,12,15,18-hexakis(oxidanylidene)-5-[2-oxidanylidene-2-(4-phenylpiperazin-1-yl)ethyl]-11-thiophen-2-yl-1,4,7,10,13,16-hexazacyclooctadec-2-yl]ethanoate

> <PUBCHEM_IUPAC_TRADITIONAL_NAME>
disodium;2-[(2R,5S,8S,11S,14S,17R)-8-(carboxylatomethyl)-17-(1H-indol-3-ylmethyl)-14-isobutyl-3,6,9,12,15,18-hexaketo-5-[2-keto-2-(4-phenylpiperazino)ethyl]-11-(2-thienyl)-1,4,7,10,13,16-hexazacyclooctadec-2-yl]acetate

> <PUBCHEM_IUPAC_INCHI>
InChI=1S/C45H53N9O11S.2Na/c1-25(2)19-30-40(60)47-31(20-26-24-46-29-12-7-6-11-28(26)29)41(61)49-33(22-37(56)57)43(63)48-32(21-36(55)54-16-14-53(15-17-54)27-9-4-3-5-10-27)42(62)50-34(23-38(58)59)44(64)52-39(45(65)51-30)35-13-8-18-66-35;;/h3-13,18,24-25,30-34,39,46H,14-17,19-23H2,1-2H3,(H,47,60)(H,48,63)(H,49,61)(H,50,62)(H,51,65)(H,52,64)(H,56,57)(H,58,59);;/q;2*+1/p-2/t30-,31+,32-,33+,34-,39+;;/m0../s1

> <PUBCHEM_IUPAC_INCHIKEY>
UWHBIISPHYTOGL-PFSAEEMXSA-L

> <PUBCHEM_EXACT_MASS>
971.322413

> <PUBCHEM_MOLECULAR_FORMULA>
C45H51N9Na2O11S

> <PUBCHEM_MOLECULAR_WEIGHT>
971.984679

> <PUBCHEM_OPENEYE_CAN_SMILES>
CC(C)CC1C(=O)NC(C(=O)NC(C(=O)NC(C(=O)NC(C(=O)NC(C(=O)N1)C2=CC=CS2)CC(=O)[O-])CC(=O)N3CCN(CC3)C4=CC=CC=C4)CC(=O)[O-])CC5=CNC6=CC=CC=C65.[Na+].[Na+]

> <PUBCHEM_OPENEYE_ISO_SMILES>
CC(C)C[C@H]1C(=O)N[C@@H](C(=O)N[C@@H](C(=O)N[C@H](C(=O)N[C@H](C(=O)N[C@@H](C(=O)N1)C2=CC=CS2)CC(=O)[O-])CC(=O)N3CCN(CC3)C4=CC=CC=C4)CC(=O)[O-])CC5=CNC6=CC=CC=C65.[Na+].[Na+]

> <PUBCHEM_CACTVS_TPSA>
322

> <PUBCHEM_MONOISOTOPIC_WEIGHT>
971.322413

> <PUBCHEM_TOTAL_CHARGE>
0

> <PUBCHEM_HEAVY_ATOM_COUNT>
68

> <PUBCHEM_ATOM_DEF_STEREO_COUNT>
6

> <PUBCHEM_ATOM_UDEF_STEREO_COUNT>
0

> <PUBCHEM_BOND_DEF_STEREO_COUNT>
0

> <PUBCHEM_BOND_UDEF_STEREO_COUNT>
0

> <PUBCHEM_ISOTOPIC_ATOM_COUNT>
0

> <PUBCHEM_COMPONENT_COUNT>
3

> <PUBCHEM_CACTVS_TAUTO_COUNT>
729

> <PUBCHEM_COORDINATE_TYPE>
1
5
255

> <PUBCHEM_BONDANNOTATIONS>
1  58  8
1  68  8
23  52  8
23  53  8
30  29  5
31  32  5
33  36  6
34  47  8
34  48  8
38  51  6
40  49  8
40  52  8
43  55  5
46  99  6
47  56  8
48  57  8
49  53  8
49  59  8
53  61  8
56  60  8
57  60  8
58  64  8
59  63  8
61  65  8
63  65  8
64  67  8
67  68  8

$$$$
